 Gaussian 09, Revision D.01,
 Gaussian 09:  ES64L-G09RevD.01 24-Apr-2013

 ------------------------------------------------------------
 #p geom=connectivity pop=always b3lyp/genecp td=(nstates=30)
 ------------------------------------------------------------

 ----------------------
 Generated by Christina
 ----------------------
 Symbolic Z-matrix:
 Charge =  2 Multiplicity = 1

                         Standard orientation:
 ---------------------------------------------------------------------
 Center     Atomic      Atomic             Coordinates (Angstroms)
 Number     Number       Type             X           Y           Z
 ---------------------------------------------------------------------
      1         79           0        4.121302    1.239054    0.393397
      2         79           0        2.677657   -1.145698    0.467196
      3         79           0       -0.181027   -1.346892    1.110504
      4         79           0       -1.990243   -1.719353   -1.519517
      5         79           0       -2.422079    0.473934    0.422624
      6         79           0       -0.961878    3.350742    0.270679
      7          7           0       -0.768089   -0.346429   -0.634125
      8          6           0        2.217721    0.773818    1.251555
      9          6           0        0.004103    0.468799   -1.500164
     10          6           0       -0.132107    0.448001   -2.892290
     11          1           0       -0.745186   -0.136537   -3.266922
     12          6           0        0.594337    1.234471   -3.708528
     13          1           0        0.447355    1.198503   -4.621328
     14          6           0        1.570062    2.121165   -3.199770
     15          1           0        2.056583    2.677482   -3.762894
     16          6           0        1.761417    2.121849   -1.836875
     17          1           0        2.416484    2.683556   -1.487057
     18          6           0        1.022125    1.339656   -0.965713
     19          6           0        1.251749    1.423378    0.494343
     20          7           0        0.435628    2.185675    1.249094
     21          6           0        1.950528    1.200067    2.619699
     22          6           0        2.535372    0.951080    3.846468
     23          1           0        3.251585    0.354366    3.914820
     24          6           0        2.045401    1.604951    4.962703
     25          1           0        2.448972    1.471532    5.788494
     26          6           0        0.950310    2.477318    4.886215
     27          1           0        0.637120    2.887953    5.654909
     28          6           0        0.330198    2.701507    3.674976
     29          1           0       -0.413025    3.262872    3.617624
     30          6           0        0.848021    2.090151    2.554662
     31         15           0        5.981517    2.075476   -0.569358
     32          6           0        6.601679    1.142442   -1.990254
     33          6           0        7.885541    0.563003   -2.008948
     34          1           0        8.475351    0.701008   -1.299104
     35          6           0        8.269012   -0.195179   -3.076426
     36          1           0        9.110179   -0.596194   -3.081479
     37          6           0        7.446027   -0.394699   -4.156466
     38          1           0        7.751550   -0.885769   -4.884275
     39          6           0        6.176152    0.142139   -4.167597
     40          1           0        5.607757   -0.003698   -4.886386
     41          6           0        5.749006    0.908817   -3.089148
     42          1           0        4.887253    1.272344   -3.100556
     43          6           0        5.637667    3.753045   -1.195561
     44          6           0        6.286408    4.306790   -2.295880
     45          1           0        6.883141    3.796571   -2.779291
     46          6           0        6.023259    5.620633   -2.656394
     47          1           0        6.486329    6.005992   -3.371911
     48          6           0        5.122530    6.362116   -1.985358
     49          1           0        4.930188    7.219397   -2.257338
     50          6           0        4.463696    5.827330   -0.903443
     51          1           0        3.852815    6.350409   -0.431625
     52          6           0        4.705739    4.528314   -0.483475
     53          1           0        4.253310    4.176654    0.239189
     54          6           0        7.356845    2.236374    0.570065
     55          6           0        8.292580    3.278525    0.489303
     56          1           0        8.254984    3.886412   -0.222286
     57          6           0        9.272581    3.398511    1.444762
     58          1           0        9.869153    4.113335    1.397549
     59          6           0        9.383625    2.474355    2.474910
     60          1           0       10.059780    2.558460    3.114472
     61          6           0        8.527676    1.455675    2.536093
     62          1           0        8.598158    0.828338    3.220476
     63          6           0        7.499250    1.308173    1.600581
     64          1           0        6.917670    0.587656    1.666310
     65         15           0        3.387659   -2.943069   -0.719714
     66          6           0        2.869162   -2.819749   -2.460103
     67          6           0        2.933452   -1.564106   -3.103630
     68          1           0        3.196851   -0.813624   -2.627083
     69          6           0        2.582790   -1.461095   -4.424473
     70          1           0        2.659304   -0.634009   -4.842412
     71          6           0        2.142617   -2.513843   -5.115466
     72          1           0        1.872439   -2.414148   -5.994820
     73          6           0        2.087815   -3.749948   -4.522219
     74          1           0        1.809424   -4.494737   -5.017283
     75          6           0        2.432884   -3.896139   -3.199323
     76          1           0        2.381840   -4.724959   -2.797139
     77          6           0        2.820866   -4.622462   -0.226273
     78          6           0        1.482606   -4.793434   -0.016206
     79          1           0        0.904414   -4.066714   -0.091529
     80          6           0        0.994917   -6.071088    0.326077
     81          1           0        0.090069   -6.198229    0.495741
     82          6           0        1.859726   -7.122222    0.399035
     83          1           0        1.538502   -7.962643    0.600549
     84          6           0        3.180626   -6.937321    0.191104
     85          1           0        3.762029   -7.665109    0.252696
     86          6           0        3.702354   -5.664953   -0.120956
     87          1           0        4.616613   -5.534199   -0.237721
     88          6           0        5.222924   -2.979912   -0.731792
     89          6           0        5.929827   -3.291346   -1.896781
     90          1           0        5.483887   -3.459116   -2.694459
     91          6           0        7.325950   -3.339967   -1.843161
     92          1           0        7.811747   -3.573225   -2.599859
     93          6           0        7.999188   -3.055884   -0.659080
     94          1           0        8.927415   -3.074811   -0.622546
     95          6           0        7.228038   -2.720955    0.532747
     96          1           0        7.652709   -2.568099    1.348461
     97          6           0        5.887606   -2.639789    0.438640
     98          1           0        5.392412   -2.357658    1.174768
     99         15           0       -0.060593   -2.485810    3.055359
    100          6           0       -0.680115   -4.185674    2.926304
    101          6           0       -0.148098   -5.232825    3.685799
    102          1           0        0.601348   -5.084440    4.220975
    103          6           0       -0.738369   -6.476758    3.630037
    104          1           0       -0.353148   -7.180763    4.095420
    105          6           0       -1.888040   -6.679321    2.910785
    106          1           0       -2.295630   -7.516221    2.902469
    107          6           0       -2.431380   -5.643298    2.178639
    108          1           0       -3.212721   -5.787811    1.686680
    109          6           0       -1.832464   -4.386995    2.177197
    110          1           0       -2.203003   -3.695677    1.679823
    111          6           0       -1.124609   -1.742101    4.350761
    112          6           0       -1.881261   -2.510363    5.224060
    113          1           0       -1.907945   -3.442020    5.137438
    114          6           0       -2.620073   -1.891849    6.233861
    115          1           0       -3.142988   -2.382155    6.819744
    116          6           0       -2.551290   -0.508539    6.338852
    117          1           0       -3.016013   -0.093979    7.020815
    118          6           0       -1.834109    0.251571    5.478803
    119          1           0       -1.824638    1.174413    5.576651
    120          6           0       -1.105243   -0.370730    4.459688
    121          1           0       -0.623782    0.142581    3.855033
    122          6           0        1.550627   -2.650574    3.882054
    123          6           0        1.727770   -2.244772    5.202790
    124          1           0        1.013588   -1.879559    5.677304
    125          6           0        2.981995   -2.403972    5.807170
    126          1           0        3.096593   -2.152253    6.688309
    127          6           0        4.031089   -2.936258    5.118133
    128          1           0        4.856509   -3.025938    5.529399
    129          6           0        3.870316   -3.340413    3.779249
    130          1           0        4.585341   -3.698458    3.311657
    131          6           0        2.619451   -3.205028    3.170226
    132          1           0        2.499259   -3.499927    2.291143
    133         15           0       -3.295476   -3.073901   -2.731650
    134          6           0       -5.076301   -2.840577   -2.481807
    135          6           0       -5.568563   -1.695554   -2.292860
    136          1           0       -4.980018   -0.979111   -2.181855
    137          6           0       -6.964930   -1.391496   -2.235340
    138          1           0       -7.274674   -0.523869   -2.171448
    139          6           0       -7.798795   -2.493067   -2.249928
    140          1           0       -8.713072   -2.375206   -2.116117
    141          6           0       -7.350355   -3.606848   -2.436993
    142          1           0       -7.964520   -4.298813   -2.541332
    143          6           0       -6.008600   -3.890619   -2.508868
    144          1           0       -5.712856   -4.768131   -2.575265
    145          6           0       -3.018680   -2.595839   -4.488420
    146          6           0       -4.028900   -2.095416   -5.288065
    147          1           0       -4.889563   -2.036858   -4.940457
    148          6           0       -3.774212   -1.696138   -6.570489
    149          1           0       -4.447282   -1.352493   -7.118836
    150          6           0       -2.495689   -1.810317   -6.998089
    151          1           0       -2.283990   -1.481818   -7.840805
    152          6           0       -1.486635   -2.377390   -6.288203
    153          1           0       -0.653986   -2.508204   -6.673149
    154          6           0       -1.737802   -2.770743   -4.969002
    155          1           0       -1.062363   -3.122625   -4.441308
    156          6           0       -2.921833   -4.840867   -2.637725
    157          6           0       -2.666369   -5.443135   -1.409510
    158          1           0       -2.725047   -4.938039   -0.639618
    159          6           0       -2.382122   -6.769696   -1.356230
    160          1           0       -2.168918   -7.141967   -0.519954
    161          6           0       -2.359705   -7.583007   -2.423762
    162          1           0       -2.203868   -8.493066   -2.338280
    163          6           0       -2.587716   -7.013628   -3.635710
    164          1           0       -2.543038   -7.528609   -4.408108
    165          6           0       -2.880679   -5.660767   -3.744057
    166          1           0       -3.053420   -5.295922   -4.577573
    167         15           0       -4.366924    0.821104    1.499170
    168          6           0       -5.055028   -0.820086    1.881147
    169          6           0       -6.148087   -1.322707    1.191223
    170          1           0       -6.565180   -0.808851    0.536559
    171          6           0       -6.618873   -2.598541    1.471773
    172          1           0       -7.348931   -2.935655    1.014093
    173          6           0       -5.996601   -3.371754    2.442247
    174          1           0       -6.309566   -4.222724    2.639231
    175          6           0       -4.903543   -2.869133    3.132171
    176          1           0       -4.486450   -3.382989    3.786835
    177          6           0       -4.432756   -1.593299    2.851621
    178          1           0       -3.692754   -1.252399    3.318615
    179          6           0       -5.610671    1.695654    0.528368
    180          6           0       -6.625695    2.382219    1.096835
    181          1           0       -6.678349    2.454076    2.025686
    182          6           0       -7.603994    2.983743    0.318632
    183          1           0       -8.279445    3.470837    0.734451
    184          6           0       -7.596647    2.871592   -0.996384
    185          1           0       -8.310566    3.199744   -1.494818
    186          6           0       -6.526375    2.285810   -1.632605
    187          1           0       -6.447690    2.317365   -2.556138
    188          6           0       -5.590077    1.654630   -0.861917
    189          1           0       -4.905672    1.186901   -1.284433
    190          6           0       -4.237701    1.694685    3.078143
    191          6           0       -4.990044    1.329666    4.212357
    192          1           0       -5.568188    0.601258    4.170262
    193          6           0       -4.868904    2.051623    5.356998
    194          1           0       -5.383494    1.813200    6.099999
    195          6           0       -4.005442    3.118889    5.461292
    196          1           0       -3.909389    3.566505    6.271856
    197          6           0       -3.304188    3.510121    4.349500
    198          1           0       -2.748452    4.261939    4.384531
    199          6           0       -3.394960    2.799696    3.189217
    200          1           0       -2.896886    3.059218    2.455274
    201         15           0       -2.233967    4.750351   -0.936997
    202          6           0       -3.653641    5.349506    0.002439
    203          6           0       -4.928837    5.448301   -0.565729
    204          1           0       -5.065147    5.249905   -1.456099
    205          6           0       -5.989048    5.855557    0.239688
    206          1           0       -6.846066    5.903617   -0.110184
    207          6           0       -5.767786    6.184626    1.576721
    208          1           0       -6.474642    6.463713    2.110636
    209          6           0       -4.539934    6.111148    2.109993
    210          1           0       -4.407827    6.326191    2.998083
    211          6           0       -3.446676    5.714181    1.318788
    212          1           0       -2.596229    5.691006    1.687033
    213          6           0       -2.871670    4.041609   -2.480247
    214          6           0       -2.834661    2.680210   -2.664157
    215          1           0       -2.406942    2.147568   -2.034675
    216          6           0       -3.423137    2.093093   -3.804811
    217          1           0       -3.419452    1.172969   -3.907075
    218          6           0       -4.009832    2.898100   -4.740307
    219          1           0       -4.421553    2.506168   -5.483392
    220          6           0       -3.992140    4.307622   -4.612894
    221          1           0       -4.350862    4.852781   -5.278191
    222          6           0       -3.425626    4.849912   -3.452039
    223          1           0       -3.432524    5.771105   -3.336043
    224          6           0       -1.250189    6.207388   -1.366559
    225          6           0        0.087297    6.033528   -1.768436
    226          1           0        0.430622    5.176365   -1.861701
    227          6           0        0.887559    7.074257   -2.004584
    228          1           0        1.767179    6.947694   -2.269633
    229          6           0        0.372162    8.408904   -1.835818
    230          1           0        0.932860    9.137426   -1.936186
    231          6           0       -0.928839    8.585164   -1.527553
    232          1           0       -1.275686    9.436402   -1.471064
    233          6           0       -1.761009    7.495821   -1.280516
    234          1           0       -2.654243    7.635417   -1.070647
 ---------------------------------------------------------------------

 SCF Done:  E(RB3LYP) =  -7675.90521820     A.U. after   29 cycles

 Excitation energies and oscillator strengths:

 Excited State   1:      Singlet-A      3.0432 eV  407.41 nm  f=0.0074  <S**2>=0.000
     523 -> 524        0.69092
 This state for optimization and/or second-order correction.
 Total Energy, E(TD-HF/TD-KS) =  -7675.79338095
 Copying the excited state density for this state as the 1-particle RhoCI density.

 Excited State   2:      Singlet-A      3.3589 eV  369.13 nm  f=0.0580  <S**2>=0.000
     522 -> 524        0.18811
     523 -> 525        0.65348

 Excited State   3:      Singlet-A      3.4086 eV  363.74 nm  f=0.0409  <S**2>=0.000
     522 -> 524        0.65387
     523 -> 525       -0.18069
     523 -> 527       -0.10603

 Excited State   4:      Singlet-A      3.4377 eV  360.66 nm  f=0.0106  <S**2>=0.000
     523 -> 526        0.54485
     523 -> 527        0.40181

 Excited State   5:      Singlet-A      3.4753 eV  356.76 nm  f=0.0009  <S**2>=0.000
     523 -> 525       -0.10316
     523 -> 526       -0.40553
     523 -> 527        0.51870
     523 -> 531        0.12304

 Excited State   6:      Singlet-A      3.5548 eV  348.78 nm  f=0.0123  <S**2>=0.000
     523 -> 528        0.58097
     523 -> 529       -0.31374

 Excited State   7:      Singlet-A      3.5822 eV  346.11 nm  f=0.0202  <S**2>=0.000
     521 -> 524       -0.18948
     523 -> 528        0.30803
     523 -> 529        0.54379
     523 -> 530       -0.13069
     523 -> 531        0.14633

 Excited State   8:      Singlet-A      3.5949 eV  344.89 nm  f=0.0314  <S**2>=0.000
     521 -> 524        0.62398
     523 -> 528        0.13306
     523 -> 529        0.17013
     523 -> 530        0.17934

 Excited State   9:      Singlet-A      3.6176 eV  342.73 nm  f=0.0137  <S**2>=0.000
     521 -> 524       -0.22302
     522 -> 525       -0.11436
     523 -> 530        0.57933
     523 -> 531        0.15793
     523 -> 532        0.11072
     523 -> 533       -0.10797

 Excited State  10:      Singlet-A      3.6702 eV  337.81 nm  f=0.0073  <S**2>=0.000
     522 -> 527       -0.13348
     523 -> 529       -0.17141
     523 -> 530       -0.19802
     523 -> 531        0.58023
     523 -> 532        0.12712
     523 -> 533       -0.10076
     523 -> 535        0.12473

 Excited State  11:      Singlet-A      3.6823 eV  336.70 nm  f=0.0029  <S**2>=0.000
     522 -> 525        0.63392
     522 -> 527        0.13349
     523 -> 530        0.10068
     523 -> 534        0.11319

 Excited State  12:      Singlet-A      3.7316 eV  332.25 nm  f=0.0071  <S**2>=0.000
     522 -> 525       -0.15714
     523 -> 530       -0.13578
     523 -> 531       -0.18850
     523 -> 532        0.40487
     523 -> 533       -0.28413
     523 -> 534        0.31468
     523 -> 535        0.13245
     523 -> 536       -0.11463

 Excited State  13:      Singlet-A      3.7573 eV  329.99 nm  f=0.0158  <S**2>=0.000
     522 -> 526       -0.22879
     522 -> 527       -0.21212
     523 -> 532       -0.23661
     523 -> 533        0.21230
     523 -> 534        0.48124
     523 -> 535        0.11694
     523 -> 537       -0.12588

 Excited State  14:      Singlet-A      3.7747 eV  328.46 nm  f=0.0087  <S**2>=0.000
     522 -> 526       -0.15866
     522 -> 527        0.11478
     523 -> 532        0.38929
     523 -> 533        0.49355
     523 -> 535        0.12269
     523 -> 536        0.14883

 Excited State  15:      Singlet-A      3.7856 eV  327.52 nm  f=0.0201  <S**2>=0.000
     522 -> 526        0.39047
     522 -> 527        0.27557
     523 -> 527       -0.12670
     523 -> 531        0.11033
     523 -> 534        0.33058
     523 -> 535       -0.25764
     523 -> 536        0.11247

 Excited State  16:      Singlet-A      3.7885 eV  327.27 nm  f=0.0141  <S**2>=0.000
     522 -> 525       -0.11183
     522 -> 526        0.13854
     522 -> 527        0.27714
     523 -> 532       -0.23422
     523 -> 535        0.52389
     523 -> 536        0.11701

 Excited State  17:      Singlet-A      3.8094 eV  325.47 nm  f=0.0035  <S**2>=0.000
     522 -> 526        0.43964
     522 -> 527       -0.40355
     523 -> 527        0.10414
     523 -> 531       -0.12675
     523 -> 533        0.11267
     523 -> 535        0.17145

 Excited State  18:      Singlet-A      3.8612 eV  321.11 nm  f=0.0005  <S**2>=0.000
     521 -> 525        0.59555
     521 -> 526       -0.15438
     521 -> 527        0.11207
     522 -> 528       -0.15720
     523 -> 536        0.17855

 Excited State  19:      Singlet-A      3.8707 eV  320.32 nm  f=0.0009  <S**2>=0.000
     521 -> 525       -0.17640
     522 -> 526       -0.14105
     522 -> 527       -0.13158
     522 -> 529        0.15922
     523 -> 533       -0.14617
     523 -> 536        0.56368
     523 -> 537        0.13010

 Excited State  20:      Singlet-A      3.8780 eV  319.71 nm  f=0.0031  <S**2>=0.000
     521 -> 525        0.15470
     522 -> 528        0.63649

 Excited State  21:      Singlet-A      3.8986 eV  318.02 nm  f=0.0109  <S**2>=0.000
     522 -> 529       -0.13514
     523 -> 537        0.46625
     523 -> 538       -0.42277
     523 -> 539        0.15328

 Excited State  22:      Singlet-A      3.9091 eV  317.17 nm  f=0.0076  <S**2>=0.000
     522 -> 529        0.33941
     522 -> 530        0.23328
     522 -> 531        0.16123
     523 -> 537       -0.25313
     523 -> 538       -0.28173
     523 -> 539        0.32097

 Excited State  23:      Singlet-A      3.9216 eV  316.16 nm  f=0.0023  <S**2>=0.000
     522 -> 527       -0.10726
     522 -> 529        0.44935
     522 -> 531        0.13557
     523 -> 533        0.13027
     523 -> 536       -0.18231
     523 -> 537        0.32032
     523 -> 538        0.24161

 Excited State  24:      Singlet-A      3.9367 eV  314.94 nm  f=0.0176  <S**2>=0.000
     521 -> 526       -0.15229
     522 -> 529       -0.21768
     522 -> 530        0.33301
     523 -> 536        0.12063
     523 -> 537        0.14413
     523 -> 538        0.32740
     523 -> 539        0.34868

 Excited State  25:      Singlet-A      3.9391 eV  314.75 nm  f=0.0043  <S**2>=0.000
     522 -> 530        0.48061
     522 -> 531        0.10010
     523 -> 538       -0.13198
     523 -> 539       -0.42355

 Excited State  26:      Singlet-A      3.9505 eV  313.85 nm  f=0.0039  <S**2>=0.000
     521 -> 525        0.12214
     521 -> 526        0.63398
     521 -> 527        0.11255
     522 -> 529       -0.10526

 Excited State  27:      Singlet-A      3.9887 eV  310.84 nm  f=0.0001  <S**2>=0.000
     521 -> 527        0.40648
     521 -> 528        0.10413
     521 -> 531        0.11000
     522 -> 529       -0.11543
     522 -> 530       -0.11193
     522 -> 531        0.44572
     523 -> 540       -0.10060

 Excited State  28:      Singlet-A      4.0025 eV  309.76 nm  f=0.0048  <S**2>=0.000
     521 -> 527        0.42334
     521 -> 531        0.19008
     522 -> 529        0.12909
     522 -> 530        0.10130
     522 -> 531       -0.35988
     523 -> 541       -0.11281
     523 -> 542        0.12039

 Excited State  29:      Singlet-A      4.0162 eV  308.71 nm  f=0.0081  <S**2>=0.000
     520 -> 524        0.19614
     522 -> 531        0.11200
     522 -> 540        0.10281
     523 -> 540        0.60336
     523 -> 543       -0.10867

 Excited State  30:      Singlet-A      4.0276 eV  307.83 nm  f=0.0622  <S**2>=0.000
     519 -> 524        0.17835
     520 -> 524        0.56295
     521 -> 527        0.12255
     523 -> 540       -0.17989
     523 -> 541        0.21585

 The electronic state is 1-A.
 Alpha  occ. eigenvalues --  -77.24595 -77.24446 -77.24179 -77.23956 -77.23468
 Alpha  occ. eigenvalues --  -77.23105 -14.45984 -14.45840 -10.33796 -10.32969
 Alpha  occ. eigenvalues --  -10.32432 -10.32268 -10.32215 -10.32149 -10.32115
 Alpha  occ. eigenvalues --  -10.32088 -10.32035 -10.31955 -10.31846 -10.31711
 Alpha  occ. eigenvalues --  -10.31684 -10.31663 -10.31501 -10.31494 -10.31491
 Alpha  occ. eigenvalues --  -10.31460 -10.31136 -10.30987 -10.30621 -10.30230
 Alpha  occ. eigenvalues --  -10.30227 -10.30111 -10.30104 -10.30094 -10.30089
 Alpha  occ. eigenvalues --  -10.30057 -10.30053 -10.30000 -10.29935 -10.29916
 Alpha  occ. eigenvalues --  -10.29902 -10.29835 -10.29819 -10.29819 -10.29804
 Alpha  occ. eigenvalues --  -10.29795 -10.29791 -10.29758 -10.29739 -10.29736
 Alpha  occ. eigenvalues --  -10.29712 -10.29674 -10.29645 -10.29634 -10.29595
 Alpha  occ. eigenvalues --  -10.29583 -10.29530 -10.29521 -10.29512 -10.29496
 Alpha  occ. eigenvalues --  -10.29487 -10.29407 -10.29390 -10.29383 -10.29364
 Alpha  occ. eigenvalues --  -10.29340 -10.29339 -10.29332 -10.29325 -10.29320
 Alpha  occ. eigenvalues --  -10.29277 -10.29254 -10.29234 -10.29225 -10.29209
 Alpha  occ. eigenvalues --  -10.29194 -10.29190 -10.29171 -10.29152 -10.29120
 Alpha  occ. eigenvalues --  -10.29079 -10.29037 -10.29029 -10.28989 -10.28985
 Alpha  occ. eigenvalues --  -10.28978 -10.28963 -10.28954 -10.28929 -10.28924
 Alpha  occ. eigenvalues --  -10.28873 -10.28872 -10.28845 -10.28844 -10.28786
 Alpha  occ. eigenvalues --  -10.28770 -10.28761 -10.28758 -10.28757 -10.28746
 Alpha  occ. eigenvalues --  -10.28743 -10.28638 -10.28590 -10.28574 -10.28562
 Alpha  occ. eigenvalues --  -10.28513 -10.28496 -10.28390 -10.28320 -10.28275
 Alpha  occ. eigenvalues --  -10.28269 -10.28260 -10.28224 -10.28204 -10.28110
 Alpha  occ. eigenvalues --  -10.28063 -10.27995 -10.27862 -10.27854 -10.27683
 Alpha  occ. eigenvalues --  -10.27664 -10.27606 -10.27504 -10.27353 -10.27127
 Alpha  occ. eigenvalues --  -10.26924 -10.26467 -10.26273 -10.26229 -10.25837
 Alpha  occ. eigenvalues --   -6.72483  -6.72379  -6.72132  -6.71810  -6.71344
 Alpha  occ. eigenvalues --   -6.71064  -4.88624  -4.88622  -4.88524  -4.88521
 Alpha  occ. eigenvalues --   -4.88446  -4.88320  -4.88266  -4.88254  -4.88107
 Alpha  occ. eigenvalues --   -4.87963  -4.87947  -4.87765  -4.87499  -4.87481
 Alpha  occ. eigenvalues --   -4.87286  -4.87205  -4.87196  -4.87014  -4.30854
 Alpha  occ. eigenvalues --   -4.30697  -4.30566  -4.30520  -4.30050  -4.29542
 Alpha  occ. eigenvalues --   -2.45514  -2.45217  -2.45214  -2.45015  -2.44501
 Alpha  occ. eigenvalues --   -2.44092  -2.43081  -2.43057  -2.43039  -2.42958
 Alpha  occ. eigenvalues --   -2.42929  -2.42830  -2.42777  -2.42661  -2.42556
 Alpha  occ. eigenvalues --   -2.42233  -2.41881  -2.41809  -1.07529  -1.02064
 Alpha  occ. eigenvalues --   -1.01011  -1.00542  -1.00099  -1.00021  -0.99994
 Alpha  occ. eigenvalues --   -0.99987  -0.99950  -0.99798  -0.99247  -0.99203
 Alpha  occ. eigenvalues --   -0.99083  -0.99047  -0.98966  -0.98668  -0.98469
 Alpha  occ. eigenvalues --   -0.98356  -0.98312  -0.98097  -0.94883  -0.94327
 Alpha  occ. eigenvalues --   -0.93778  -0.92494  -0.91975  -0.91781  -0.91649
 Alpha  occ. eigenvalues --   -0.91243  -0.91191  -0.90056  -0.89899  -0.89823
 Alpha  occ. eigenvalues --   -0.89726  -0.89565  -0.89514  -0.89402  -0.89356
 Alpha  occ. eigenvalues --   -0.89336  -0.89262  -0.89206  -0.89175  -0.89046
 Alpha  occ. eigenvalues --   -0.88987  -0.88924  -0.88918  -0.88855  -0.88662
 Alpha  occ. eigenvalues --   -0.88620  -0.88604  -0.88595  -0.88570  -0.88415
 Alpha  occ. eigenvalues --   -0.88281  -0.88083  -0.88018  -0.87986  -0.87947
 Alpha  occ. eigenvalues --   -0.87893  -0.87697  -0.87571  -0.84868  -0.83808
 Alpha  occ. eigenvalues --   -0.81819  -0.81040  -0.80934  -0.80449  -0.80135
 Alpha  occ. eigenvalues --   -0.79954  -0.79805  -0.78139  -0.77082  -0.76897
 Alpha  occ. eigenvalues --   -0.76860  -0.76604  -0.76559  -0.76469  -0.76434
 Alpha  occ. eigenvalues --   -0.76353  -0.76081  -0.76073  -0.76038  -0.75853
 Alpha  occ. eigenvalues --   -0.75775  -0.75688  -0.75562  -0.75519  -0.75277
 Alpha  occ. eigenvalues --   -0.75098  -0.75029  -0.74910  -0.74795  -0.74653
 Alpha  occ. eigenvalues --   -0.74532  -0.74312  -0.74309  -0.74091  -0.74002
 Alpha  occ. eigenvalues --   -0.73876  -0.73832  -0.73599  -0.73076  -0.72095
 Alpha  occ. eigenvalues --   -0.71973  -0.71759  -0.71460  -0.71314  -0.71218
 Alpha  occ. eigenvalues --   -0.70678  -0.70343  -0.69092  -0.68622  -0.68506
 Alpha  occ. eigenvalues --   -0.68071  -0.68000  -0.67986  -0.67928  -0.67914
 Alpha  occ. eigenvalues --   -0.67644  -0.67582  -0.67335  -0.67299  -0.66928
 Alpha  occ. eigenvalues --   -0.66743  -0.66552  -0.66211  -0.66026  -0.65960
 Alpha  occ. eigenvalues --   -0.65477  -0.64542  -0.62876  -0.62715  -0.62646
 Alpha  occ. eigenvalues --   -0.62591  -0.62495  -0.62429  -0.62343  -0.62234
 Alpha  occ. eigenvalues --   -0.62148  -0.62093  -0.61924  -0.61711  -0.61637
 Alpha  occ. eigenvalues --   -0.61368  -0.61240  -0.61032  -0.60827  -0.60511
 Alpha  occ. eigenvalues --   -0.60235  -0.60052  -0.59666  -0.59502  -0.59370
 Alpha  occ. eigenvalues --   -0.59131  -0.59058  -0.58825  -0.58751  -0.58678
 Alpha  occ. eigenvalues --   -0.58594  -0.58435  -0.58411  -0.58283  -0.58192
 Alpha  occ. eigenvalues --   -0.58101  -0.57960  -0.57860  -0.57801  -0.57751
 Alpha  occ. eigenvalues --   -0.57697  -0.57611  -0.57566  -0.57486  -0.57377
 Alpha  occ. eigenvalues --   -0.57331  -0.57279  -0.57247  -0.57200  -0.57193
 Alpha  occ. eigenvalues --   -0.57125  -0.57009  -0.56923  -0.56902  -0.56874
 Alpha  occ. eigenvalues --   -0.56720  -0.56665  -0.56516  -0.56464  -0.56380
 Alpha  occ. eigenvalues --   -0.56329  -0.56276  -0.55904  -0.55807  -0.55751
 Alpha  occ. eigenvalues --   -0.55635  -0.55558  -0.55469  -0.55373  -0.55201
 Alpha  occ. eigenvalues --   -0.55157  -0.55138  -0.55000  -0.54834  -0.54769
 Alpha  occ. eigenvalues --   -0.54740  -0.54717  -0.54482  -0.54249  -0.53565
 Alpha  occ. eigenvalues --   -0.52928  -0.52596  -0.52077  -0.51682  -0.51565
 Alpha  occ. eigenvalues --   -0.51430  -0.51128  -0.50972  -0.50809  -0.50749
 Alpha  occ. eigenvalues --   -0.50631  -0.50527  -0.50353  -0.50300  -0.50247
 Alpha  occ. eigenvalues --   -0.50183  -0.50047  -0.50017  -0.49810  -0.49802
 Alpha  occ. eigenvalues --   -0.49637  -0.49612  -0.49594  -0.49537  -0.49479
 Alpha  occ. eigenvalues --   -0.49448  -0.49436  -0.49407  -0.49236  -0.49235
 Alpha  occ. eigenvalues --   -0.49096  -0.49037  -0.49021  -0.48916  -0.48885
 Alpha  occ. eigenvalues --   -0.48849  -0.48762  -0.48742  -0.48619  -0.48558
 Alpha  occ. eigenvalues --   -0.48547  -0.48450  -0.48351  -0.48290  -0.48129
 Alpha  occ. eigenvalues --   -0.48069  -0.47975  -0.47936  -0.47833  -0.47767
 Alpha  occ. eigenvalues --   -0.47675  -0.47451  -0.47440  -0.47323  -0.47234
 Alpha  occ. eigenvalues --   -0.47161  -0.47024  -0.46769  -0.46554  -0.46451
 Alpha  occ. eigenvalues --   -0.46365  -0.46122  -0.46045  -0.45911  -0.45612
 Alpha  occ. eigenvalues --   -0.45575  -0.45394  -0.45125  -0.44885  -0.44790
 Alpha  occ. eigenvalues --   -0.44544  -0.44386  -0.44182  -0.44091  -0.43857
 Alpha  occ. eigenvalues --   -0.43691  -0.43663  -0.43398  -0.43165  -0.43083
 Alpha  occ. eigenvalues --   -0.42970  -0.42887  -0.42580  -0.42288  -0.42233
 Alpha  occ. eigenvalues --   -0.42038  -0.41939  -0.41835  -0.41417  -0.41235
 Alpha  occ. eigenvalues --   -0.41088  -0.41015  -0.40562  -0.40362  -0.39859
 Alpha  occ. eigenvalues --   -0.39733  -0.39551  -0.39485  -0.39386  -0.39295
 Alpha  occ. eigenvalues --   -0.39126  -0.39106  -0.38938  -0.38875  -0.38762
 Alpha  occ. eigenvalues --   -0.38636  -0.38588  -0.38488  -0.38341  -0.38252
 Alpha  occ. eigenvalues --   -0.38195  -0.38147  -0.38086  -0.37962  -0.37887
 Alpha  occ. eigenvalues --   -0.37828  -0.37706  -0.37540  -0.37513  -0.37387
 Alpha  occ. eigenvalues --   -0.37302  -0.37284  -0.37212  -0.37159  -0.37036
 Alpha  occ. eigenvalues --   -0.36930  -0.36735  -0.36660  -0.36543  -0.36247
 Alpha  occ. eigenvalues --   -0.36157  -0.35670  -0.35355  -0.34629  -0.34205
 Alpha  occ. eigenvalues --   -0.32301  -0.31726  -0.30500
 Alpha virt. eigenvalues --   -0.17125  -0.16290  -0.16020  -0.15958  -0.15751
 Alpha virt. eigenvalues --   -0.15572  -0.15499  -0.15346  -0.15165  -0.15038
 Alpha virt. eigenvalues --   -0.14965  -0.14900  -0.14649  -0.14619  -0.14408

 Mulliken charges:
               1
     1  Au  -0.359928
     2  Au  -0.105968
     3  Au   0.124002
     4  Au  -0.262359
     5  Au  -0.048708
     6  Au  -0.255811
     7  N   -1.019328
     8  C   -0.552475
     9  C    0.427944
    10  C   -0.144424
    11  H    0.141747
    12  C   -0.102876
    13  H    0.104292
    14  C   -0.118539
    15  H    0.105806
    16  C   -0.128379
    17  H    0.136756
    18  C   -0.016680
    19  C    0.352892
    20  N   -0.642714
    21  C    0.111025
    22  C   -0.164285
    23  H    0.116493
    24  C   -0.111860
    25  H    0.099230
    26  C   -0.109481
    27  H    0.097678
    28  C   -0.155018
    29  H    0.093067
    30  C    0.261751
    31  P    0.570485
    32  C   -0.074251
    33  C   -0.125819
    34  H    0.127629
    35  C   -0.079588
    36  H    0.119073
    37  C   -0.098134
    38  H    0.121829
    39  C   -0.078286
    40  H    0.112386
    41  C   -0.141850
    42  H    0.129500
    43  C   -0.103938
    44  C   -0.118492
    45  H    0.125406
    46  C   -0.090997
    47  H    0.128268
    48  C   -0.078642
    49  H    0.117856
    50  C   -0.101832
    51  H    0.123353
    52  C   -0.121760
    53  H    0.159871
    54  C   -0.081256
    55  C   -0.113258
    56  H    0.122542
    57  C   -0.091792
    58  H    0.127130
    59  C   -0.080178
    60  H    0.129521
    61  C   -0.084068
    62  H    0.115754
    63  C   -0.126491
    64  H    0.134904
    65  P    0.584595
    66  C   -0.087313
    67  C   -0.114353
    68  H    0.151674
    69  C   -0.073668
    70  H    0.107811
    71  C   -0.094846
    72  H    0.115774
    73  C   -0.096369
    74  H    0.120159
    75  C   -0.122565
    76  H    0.124974
    77  C   -0.095045
    78  C   -0.144931
    79  H    0.170719
    80  C   -0.079193
    81  H    0.113924
    82  C   -0.083261
    83  H    0.114361
    84  C   -0.095873
    85  H    0.126123
    86  C   -0.128583
    87  H    0.131919
    88  C   -0.092713
    89  C   -0.111423
    90  H    0.129771
    91  C   -0.082849
    92  H    0.123625
    93  C   -0.102874
    94  H    0.128623
    95  C   -0.097652
    96  H    0.120745
    97  C   -0.110667
    98  H    0.147714
    99  P    0.638854
   100  C   -0.107016
   101  C   -0.110388
   102  H    0.137031
   103  C   -0.090394
   104  H    0.127632
   105  C   -0.097858
   106  H    0.127029
   107  C   -0.113466
   108  H    0.120828
   109  C   -0.128485
   110  H    0.160098
   111  C   -0.101309
   112  C   -0.142555
   113  H    0.131668
   114  C   -0.082841
   115  H    0.121335
   116  C   -0.104965
   117  H    0.114188
   118  C   -0.061054
   119  H    0.110021
   120  C   -0.111737
   121  H    0.155687
   122  C   -0.101065
   123  C   -0.119394
   124  H    0.139721
   125  C   -0.085290
   126  H    0.122735
   127  C   -0.091478
   128  H    0.123945
   129  C   -0.102666
   130  H    0.120509
   131  C   -0.113535
   132  H    0.151698
   133  P    0.525060
   134  C    0.001753
   135  C   -0.179774
   136  H    0.127140
   137  C   -0.083022
   138  H    0.107677
   139  C   -0.090366
   140  H    0.122234
   141  C   -0.046580
   142  H    0.120032
   143  C   -0.162907
   144  H    0.119896
   145  C   -0.075275
   146  C   -0.147534
   147  H    0.127727
   148  C   -0.061365
   149  H    0.125804
   150  C   -0.110178
   151  H    0.122584
   152  C   -0.075422
   153  H    0.112950
   154  C   -0.136394
   155  H    0.151655
   156  C   -0.077751
   157  C   -0.112573
   158  H    0.115328
   159  C   -0.101128
   160  H    0.111503
   161  C   -0.067055
   162  H    0.125739
   163  C   -0.089915
   164  H    0.126032
   165  C   -0.130532
   166  H    0.126254
   167  P    0.570310
   168  C   -0.071316
   169  C   -0.126407
   170  H    0.121204
   171  C   -0.077565
   172  H    0.116332
   173  C   -0.102506
   174  H    0.121988
   175  C   -0.093321
   176  H    0.116985
   177  C   -0.132160
   178  H    0.150664
   179  C   -0.052257
   180  C   -0.125072
   181  H    0.122747
   182  C   -0.072846
   183  H    0.121467
   184  C   -0.105349
   185  H    0.126097
   186  C   -0.077036
   187  H    0.115704
   188  C   -0.149977
   189  H    0.140294
   190  C   -0.107186
   191  C   -0.120963
   192  H    0.130932
   193  C   -0.090621
   194  H    0.126730
   195  C   -0.099727
   196  H    0.128781
   197  C   -0.097859
   198  H    0.121525
   199  C   -0.107601
   200  H    0.153993
   201  P    0.552529
   202  C   -0.088195
   203  C   -0.104404
   204  H    0.111648
   205  C   -0.084937
   206  H    0.115561
   207  C   -0.092302
   208  H    0.124850
   209  C   -0.072894
   210  H    0.117201
   211  C   -0.138047
   212  H    0.145975
   213  C   -0.065370
   214  C   -0.125800
   215  H    0.173009
   216  C   -0.095113
   217  H    0.134352
   218  C   -0.116009
   219  H    0.124036
   220  C   -0.085001
   221  H    0.131200
   222  C   -0.129892
   223  H    0.128820
   224  C   -0.067808
   225  C   -0.119655
   226  H    0.142202
   227  C   -0.086586
   228  H    0.112425
   229  C   -0.096000
   230  H    0.124684
   231  C   -0.073276
   232  H    0.124561
   233  C   -0.129192
   234  H    0.125306
 Sum of Mulliken charges =   2.00000

 Dipole moment (field-independent basis, Debye):
    X=             -3.7218    Y=             -1.9839    Z=             -3.4901  Tot=              5.4743
 Quadrupole moment (field-independent basis, Debye-Ang):
   XX=           -570.8231   YY=           -647.9085   ZZ=           -723.4550
   XY=            -10.6339   XZ=             -4.8019   YZ=             -7.1854

 Normal termination of Gaussian 09 at Tue Aug 28 07:12:50 2018.
